47   
Iteration 0 Energy -63.65257552
C        7.6741944618    2.5439299893    1.3885734477
C        6.3477631037    2.4053193110    0.6910707128
O        6.0151807830    3.1447175506   -0.2297885997
N        5.5616352090    1.3810653015    1.1751085361
C        4.3219667250    1.0320897852    0.5109354511
C        3.4632877139    0.1211478939    1.3753505845
C        2.1350748912   -0.1936059174    0.6938989692
O        1.4653447258   -1.1797904262    1.4829762279
C        0.4273410784   -1.8126936149    0.8531794047
C        0.2024267088   -3.1340511637    1.2418665326
C       -0.8278616248   -3.8728712191    0.6614179397
C       -1.6526574773   -3.2845596402   -0.2981154637
C       -1.4612442586   -1.9483631263   -0.6753251084
C       -2.3706129855   -1.3005954873   -1.7002682389
N       -3.0180008868   -0.0713002632   -1.2167411299
C       -3.9236112807   -0.2992042776   -0.0796863249
C       -5.3789304056    0.0959083264   -0.3344933489
C       -5.4968284423    1.5313294568   -0.8365698232
C       -4.3794606542    1.8989787003   -1.8140094034
C       -3.6319480218    0.6690436532   -2.3251451640
C       -0.4102098764   -1.2190174597   -0.0925351604
H        8.4657379773    2.1887888864    0.7242476474
H        7.8406320826    3.5965746260    1.6320644933
H        7.7026184061    1.9707969591    2.3197994317
H        6.0072342929    0.6762600693    1.7513283099
H        3.7859088133    1.9520142850    0.2537730012
H        4.5877148371    0.5284910639   -0.4266290969
H        3.2760995360    0.5807719995    2.3558572811
H        4.0019623857   -0.8124623299    1.5823451563
H        2.3219709792   -0.5752042033   -0.3196872616
H        1.5275079137    0.7195252911    0.6380903954
H        0.8401722606   -3.5923928561    1.9934028592
H       -0.9881065810   -4.9057565746    0.9594680924
H       -2.4573095696   -3.8704568322   -0.7374341826
H       -1.7379575681   -1.0659421192   -2.5690218369
H       -3.1256397650   -2.0176664705   -2.0521154253
H       -3.9120506901   -1.3411528036    0.2582796066
H       -3.5396318720    0.2943209986    0.7596772259
H       -5.9678158983   -0.0225574751    0.5841625755
H       -5.8160373542   -0.5899000471   -1.0739421197
H       -6.4751054772    1.6659944682   -1.3132764678
H       -5.4653527595    2.2285054300    0.0087191894
H       -3.6705761219    2.5742058686   -1.3140056210
H       -4.7978798154    2.4632242151   -2.6553849072
H       -4.3236915199    0.0291687294   -2.8877353225
H       -2.8535498820    0.9937457685   -3.0263198489
H       -0.2897040967   -0.1763743146   -0.3724169766
47   
Iteration 1 Energy -63.65792889
C        7.5847132149    2.5685249613    1.4350083871
C        6.2744489305    2.4402478516    0.6951244633
O        5.9211039128    3.1652776177   -0.2128333894
N        5.4917102932    1.4166033688    1.1371762733
C        4.2656520856    1.0551606846    0.4543319274
C        3.4126133115    0.1356492259    1.3145334969
C        2.0865169364   -0.1901083653    0.6367881856
O        1.4302670444   -1.1776928185    1.4228312816
C        0.3916822822   -1.8435384257    0.8275470119
C        0.1561194715   -3.1516415128    1.2442347427
C       -0.8781426307   -3.8793599323    0.6860277312
C       -1.6974074350   -3.3125872607   -0.2766388102
C       -1.4915640967   -2.0006008285   -0.6807754452
C       -2.3741414564   -1.3482234255   -1.7093315065
N       -2.9584542513   -0.1079444136   -1.2201633295
C       -3.8411265705   -0.3127079601   -0.0742780460
C       -5.2857402893    0.1243570744   -0.3044961081
C       -5.3653912095    1.5707871907   -0.7820392528
C       -4.2426578407    1.9032750678   -1.7738690626
C       -3.5605828733    0.6508742921   -2.3058142938
C       -0.4439221695   -1.2761901809   -0.1247798240
H        8.3934917037    2.2352808982    0.7867732549
H        7.7449463612    3.6130809843    1.6961304285
H        7.5943880209    1.9784184043    2.3512073434
H        5.9245817257    0.7099956160    1.7119692041
H        3.7301686794    1.9739663057    0.2026599494
H        4.5260775784    0.5532869070   -0.4885549390
H        3.2216407548    0.5947982027    2.2893161932
H        3.9522851792   -0.7953420067    1.5155100951
H        2.2669778825   -0.5724592920   -0.3756765677
H        1.4718672059    0.7167744464    0.5792054537
H        0.7907991010   -3.5931260937    1.9996217051
H       -1.0481881316   -4.8981002005    1.0057862576
H       -2.5063583092   -3.8937334444   -0.7003235718
H       -1.7522589907   -1.1208298401   -2.5845958153
H       -3.1503670088   -2.0544210249   -2.0474975285
H       -3.8398768336   -1.3609115364    0.2415241775
H       -3.4269670356    0.2621197116    0.7653132106
H       -5.8573001412    0.0079185702    0.6200730326
H       -5.7505114598   -0.5362915446   -1.0447306400
H       -6.3429462641    1.7457191728   -1.2409702444
H       -5.2988933218    2.2476396030    0.0741107359
H       -3.4942990158    2.5334459162   -1.2838725826
H       -4.6416958885    2.4865968831   -2.6075182681
H       -4.2910142013    0.0444974190   -2.8662172338
H       -2.7736573212    0.9400460606   -3.0093774537
H       -0.3185869295   -0.2485323237   -0.4335043908
47   
Iteration 2 Energy -63.65996405
C        7.5077891282    2.6406825605    1.4410025646
C        6.1612785026    2.4880868506    0.7672432339
O        5.7665872412    3.3137717659   -0.0219433570
N        5.4399300295    1.3972878364    1.1300711915
C        4.2008530001    1.0788159361    0.4517816499
C        3.3906412948    0.0798545589    1.2642802864
C        2.0341955476   -0.1939496408    0.6255361129
O        1.4235610341   -1.2430092354    1.3525577827
C        0.3661512444   -1.8942618037    0.7769595930
C        0.1260063484   -3.1863195839    1.2381869580
C       -0.9312889376   -3.9071689574    0.7290810880
C       -1.7547253148   -3.3534192588   -0.2346431353
C       -1.5278944115   -2.0664695993   -0.6902734970
C       -2.4083259954   -1.4290282305   -1.7261841569
N       -2.9144314287   -0.1569908686   -1.2541649035
C       -3.7515033477   -0.2876297127   -0.0682615142
C       -5.1848670723    0.1959692307   -0.2677401469
C       -5.2141712495    1.6438436202   -0.7522503297
C       -4.1040461872    1.9025515266   -1.7840217787
C       -3.5262637677    0.6034135990   -2.3229452963
C       -0.4654544688   -1.3366745357   -0.1827825398
H        8.2904169855    2.4327209820    0.7162913262
H        7.6247157690    3.6668358015    1.7769116721
H        7.6152163128    1.9713872343    2.2893578039
H        5.8944096872    0.6451406800    1.6217980586
H        3.6560889357    2.0155104711    0.3208559850
H        4.4060863396    0.6712067180   -0.5496502857
H        3.2397859188    0.4574899211    2.2765551011
H        3.9326746453   -0.8651418244    1.3478678770
H        2.1586608900   -0.4908927032   -0.4229753197
H        1.4163657837    0.7118840638    0.6664358529
H        0.7721569932   -3.6021753013    1.9934204424
H       -1.1150348924   -4.9090891033    1.0843864227
H       -2.5801328286   -3.9265196750   -0.6290796501
H       -1.8135903029   -1.2302454025   -2.6252597679
H       -3.2168669886   -2.1277279514   -2.0148283281
H       -3.7663674926   -1.3331499564    0.2547973204
H       -3.2887374762    0.2915073514    0.7442635599
H       -5.7235286448    0.1092772607    0.6764036092
H       -5.6916740276   -0.4525421985   -0.9866308116
H       -6.1936183277    1.8615995432   -1.1826114213
H       -5.0852219812    2.3132224220    0.0997579692
H       -3.2946252372    2.4755153222   -1.3306338407
H       -4.4900076495    2.4920067706   -2.6169274083
H       -4.3163151590    0.0343493510   -2.8497486366
H       -2.7428224889    0.8268293892   -3.0528316993
H       -0.3220559532   -0.3283552189   -0.5344693981
47   
Iteration 3 Energy -63.66136680
C        7.3614380730    2.6910859023    1.4346173300
C        5.9682499177    2.6341784841    0.8355405323
O        5.4349288582    3.5628335255    0.2719679539
N        5.3337379413    1.4532602369    1.0273786804
C        4.0461343802    1.1623825912    0.4321631044
C        3.3668245243    0.0197830178    1.1754763083
C        1.9561429606   -0.2312064046    0.6522675118
O        1.4656121554   -1.3884668373    1.2920284527
C        0.3809318018   -2.0239219884    0.7549919041
C        0.1055479113   -3.2994775914    1.2477813886
C       -0.9939051844   -3.9928979982    0.7879642630
C       -1.8231661345   -3.4369404833   -0.1741496531
C       -1.5478883576   -2.1751836693   -0.6764058401
C       -2.4273759698   -1.5321941219   -1.7156661323
N       -2.8393473425   -0.2130711677   -1.2776607055
C       -3.6299007622   -0.2290978588   -0.0483737681
C       -5.0402245184    0.3262632076   -0.2300408088
C       -4.9874456760    1.7632197756   -0.7503983404
C       -3.8920661362    1.9137581368   -1.8188096995
C       -3.4446800984    0.5560496158   -2.3439560177
C       -0.4464090188   -1.4676445613   -0.2102381917
H        8.0875972521    2.6786419041    0.6256582748
H        7.4790340754    3.6338489581    1.9595398156
H        7.5562596546    1.8629840754    2.1089426852
H        5.8553764588    0.6551220497    1.3524771436
H        3.4573156774    2.0793021941    0.5079279155
H        4.1436638401    0.9172036431   -0.6353167640
H        3.3106391893    0.2547925023    2.2382870476
H        3.9409993097   -0.9015298499    1.0581911417
H        1.9709664059   -0.3825287779   -0.4351709491
H        1.3157786246    0.6340388166    0.8717339705
H        0.7590699269   -3.7115498830    1.9981446111
H       -1.2060518602   -4.9769376120    1.1774546889
H       -2.6787898243   -3.9866155416   -0.5371418801
H       -1.8558053658   -1.3910096898   -2.6400174730
H       -3.2832254611   -2.1979476150   -1.9473836838
H       -3.6893488222   -1.2587204065    0.3179123898
H       -3.1061744230    0.3627323688    0.7161285552
H       -5.5524818524    0.2980653235    0.7321668873
H       -5.5982386266   -0.3105508837   -0.9186236374
H       -5.9606111153    2.0360061031   -1.1606589146
H       -4.7823913419    2.4352841170    0.0832620140
H       -3.0197399007    2.4149523590   -1.4013060119
H       -4.2545932281    2.5102522435   -2.6567680527
H       -4.2983131181    0.0379351457   -2.8248010007
H       -2.6725733528    0.6950423363   -3.1079887756
H       -0.2655014472   -0.4815256869   -0.6041820313
47   
Iteration 4 Energy -63.66204172
C        7.3148034475    2.7475351432    1.4438865781
C        5.9066792773    2.6660552494    0.8885454012
O        5.3221691557    3.6067054389    0.3972354552
N        5.3284966101    1.4473797667    1.0208113555
C        4.0318075726    1.1643574063    0.4423480880
C        3.3818127289   -0.0199383311    1.1464483748
C        1.9669979004   -0.2706952740    0.6309380452
O        1.4963795829   -1.4541960949    1.2384542794
C        0.3890798699   -2.0674506820    0.7254974328
C        0.1030853937   -3.3325418210    1.2400275426
C       -1.0112043409   -4.0155517742    0.8015743241
C       -1.8490405935   -3.4596146231   -0.1531722794
C       -1.5677375629   -2.2082020483   -0.6757857008
C       -2.4544068424   -1.5598070465   -1.7055000968
N       -2.8321298369   -0.2230276584   -1.2860583290
C       -3.5962580602   -0.1935007777   -0.0380273311
C       -5.0026037488    0.3775838851   -0.2058803698
C       -4.9355460782    1.8021898782   -0.7578762732
C       -3.8544206055    1.9158121762   -1.8444680412
C       -3.4409198811    0.5410473967   -2.3569722267
C       -0.4490243653   -1.5133164081   -0.2318972629
H        8.0138617279    2.8072387756    0.6115785212
H        7.4126347239    3.6647484632    2.0181618407
H        7.5629590035    1.8920309806    2.0641615871
H        5.8828296188    0.6516419419    1.2956325829
H        3.4270347726    2.0674762637    0.5657132509
H        4.1196150419    0.9671824827   -0.6344048970
H        3.3369809136    0.1695210278    2.2195180394
H        3.9699058829   -0.9253993940    0.9820886913
H        1.9778133089   -0.3792483821   -0.4620756044
H        1.3167890465    0.5770897772    0.8888217679
H        0.7632603935   -3.7466124769    1.9850694908
H       -1.2308546322   -4.9927772537    1.2050651984
H       -2.7187841365   -4.0025661545   -0.4930711879
H       -1.8970788785   -1.4540201050   -2.6431187818
H       -3.3300852431   -2.2056962094   -1.9064649290
H       -3.6617065095   -1.2078638574    0.3677504752
H       -3.0452542345    0.4168217137    0.6891807738
H       -5.5033018519    0.3773122896    0.7639396564
H       -5.5783359234   -0.2647370051   -0.8743459074
H       -5.9112317360    2.0814957724   -1.1586783582
H       -4.7050442548    2.4883403062    0.0580633995
H       -2.9661746171    2.4036007894   -1.4432490542
H       -4.2173364990    2.5104679643   -2.6838293344
H       -4.3120070613    0.0305625685   -2.8081632901
H       -2.6860092773    0.6551588676   -3.1432223978
H       -0.2684992018   -0.5325929424   -0.6393042602
47   
Iteration 5 Energy -63.66266719
C        7.2090411097    2.8286729710    1.5545152481
C        5.7902813380    2.7434716112    1.0371106443
O        5.1562391618    3.7317478895    0.7315369343
N        5.2855376919    1.4860409157    0.9511063048
C        3.9794387828    1.1853053802    0.4044406264
C        3.4079348590   -0.0827778772    1.0280324034
C        1.9941399190   -0.3628104422    0.5212466205
O        1.5814928785   -1.5951689954    1.0709144527
C        0.4194443504   -2.1595730086    0.6409936631
C        0.1003907450   -3.3970177577    1.2066656510
C       -1.0511681141   -4.0585405131    0.8403920612
C       -1.9103995287   -3.4933458599   -0.0892105949
C       -1.6082060594   -2.2681790101   -0.6586570897
C       -2.5291198787   -1.6241975348   -1.6587910589
N       -2.8141422692   -0.2463975637   -1.3008411072
C       -3.4841481436   -0.0956421397   -0.0067320495
C       -4.8885762764    0.4932795788   -0.1275978972
C       -4.8187648120    1.8790375185   -0.7706254848
C       -3.7891042593    1.9002965531   -1.9104558539
C       -3.4554689214    0.4862080005   -2.3777297651
C       -0.4447218856   -1.6014029621   -0.2887887261
H        7.8728907745    3.0548086577    0.7194530084
H        7.2776744313    3.6497357136    2.2655294213
H        7.5257327068    1.9039554000    2.0261909811
H        5.8913490575    0.6987831021    1.1213399635
H        3.3330469818    2.0442829799    0.6145236756
H        4.0506847509    1.0776794340   -0.6842211727
H        3.3814853126    0.0199834107    2.1144326542
H        4.0382011947   -0.9401017903    0.7813168195
H        2.0005737933   -0.4010857009   -0.5769126836
H        1.3103616250    0.4375642079    0.8392980335
H        0.7803039242   -3.8180664451    1.9319022276
H       -1.2870418765   -5.0158320366    1.2832261358
H       -2.8175123167   -4.0108655049   -0.3685210504
H       -2.0298572453   -1.6139419365   -2.6342840117
H       -3.4487014499   -2.2244858050   -1.7616933916
H       -3.5339103965   -1.0632130339    0.5010924265
H       -2.8684935850    0.5681061689    0.6093795569
H       -5.3457940478    0.5613849359    0.8623255439
H       -5.5060895542   -0.1740790521   -0.7313537535
H       -5.8075460157    2.1581615185   -1.1399579427
H       -4.5291736281    2.6095376835   -0.0129821969
H       -2.8638809090    2.3646588678   -1.5659967001
H       -4.1658582686    2.4792427541   -2.7546953063
H       -4.3693452009   -0.0126819683   -2.7383584777
H       -2.7571397735    0.5327204359   -3.2219249902
H       -0.2620809729   -0.6352587456   -0.7316875142
47   
Iteration 6 Energy -63.66329336
C        7.0164363347    2.9440822431    1.6460715740
C        5.6046549706    2.7657658933    1.1345881694
O        4.8558423205    3.6994447664    0.9344998514
N        5.2429527206    1.4789155845    0.9104264692
C        3.9466403731    1.1568002113    0.3578954772
C        3.4221037578   -0.1556588372    0.9282233647
C        2.0212931848   -0.4648711478    0.4049099823
O        1.6447468932   -1.7209529790    0.9217297203
C        0.4427373988   -2.2450995463    0.5657073680
C        0.1168791323   -3.4595186052    1.1779231336
C       -1.0701611812   -4.0870171592    0.8722886410
C       -1.9596204881   -3.5191573921   -0.0281909458
C       -1.6471214487   -2.3152873123   -0.6364438777
C       -2.5896201665   -1.6621963998   -1.6104969206
N       -2.7749730968   -0.2561807847   -1.3049596890
C       -3.3548812353   -0.0054298476    0.0152811097
C       -4.7530193517    0.6048958591   -0.0630453083
C       -4.6815153309    1.9598092649   -0.7688554445
C       -3.6945474020    1.9030292602   -1.9449627914
C       -3.4404641801    0.4613899464   -2.3761088656
C       -0.4464136447   -1.6791142960   -0.3351257817
H        7.6401229199    3.3082393352    0.8296306433
H        7.0159776314    3.6995875461    2.4287807526
H        7.4326869997    2.0173735235    2.0295410955
H        5.9061085656    0.7294474460    1.0279921003
H        3.2738164100    1.9836843859    0.6065686388
H        4.0187614328    1.0961927639   -0.7347924837
H        3.3911139859   -0.0993713298    2.0178699293
H        4.0840273544   -0.9782194799    0.6491650919
H        2.0367171675   -0.4772517290   -0.6937768824
H        1.3104759868    0.3057856729    0.7363571891
H        0.8168387360   -3.8879105060    1.8800050816
H       -1.3149648606   -5.0259079867    1.3478478075
H       -2.8936405899   -4.0159672777   -0.2517383671
H       -2.1498359250   -1.7258165123   -2.6126506692
H       -3.5454225955   -2.2125824550   -1.6330919664
H       -3.3856452309   -0.9354834671    0.5884848278
H       -2.6902175283    0.6867690262    0.5437676963
H       -5.1687756118    0.7213270038    0.9398617313
H       -5.4065775210   -0.0737624963   -0.6144228594
H       -5.6774338187    2.2458222720   -1.1127496300
H       -4.3463419523    2.7174948837   -0.0579866223
H       -2.7382547125    2.3349988489   -1.6460709707
H       -4.0745900130    2.4749963507   -2.7919811634
H       -4.3918273793   -0.0115067215   -2.6686857818
H       -2.7873464980    0.4463047346   -3.2559494749
H       -0.2577225138   -0.7278925486   -0.8083847115
47   
Iteration 7 Energy -63.66389994
C        6.8656631716    3.0027056642    1.7344067410
C        5.4756614668    2.7920624876    1.1744313135
O        4.6835866483    3.6944476886    1.0031001577
N        5.1855194390    1.5050782309    0.8691987663
C        3.9184330177    1.1348134111    0.2810585149
C        3.4117420673   -0.1825474796    0.8575410849
C        2.0398134126   -0.5433736803    0.2952082660
O        1.6778315609   -1.7965405762    0.8319071696
C        0.4553431251   -2.3089732633    0.5240787617
C        0.1332338136   -3.5140781332    1.1555416727
C       -1.0749386714   -4.1217723054    0.8946826933
C       -1.9822897037   -3.5414543971    0.0193029348
C       -1.6763185111   -2.3464628674   -0.6098777144
C       -2.6243040097   -1.6743979975   -1.5676898543
N       -2.7333290714   -0.2544736592   -1.2940900262
C       -3.2593548553    0.0552474231    0.0348508429
C       -4.6545764740    0.6747840958   -0.0176594308
C       -4.5907208693    2.0105550201   -0.7600467689
C       -3.6220164215    1.9135986905   -1.9496624437
C       -3.4082663201    0.4608701810   -2.3603179355
C       -0.4536169408   -1.7354102197   -0.3526576157
H        7.4956804467    3.4239284756    0.9527675091
H        6.8143782052    3.7233892796    2.5464079012
H        7.3099973688    2.0781417824    2.0925890526
H        5.8745873007    0.7809754733    0.9925763805
H        3.2210473990    1.9482804003    0.4973710332
H        4.0215469149    1.0548842428   -0.8093472290
H        3.3428385776   -0.1097769559    1.9441922888
H        4.1062223852   -0.9904391540    0.6173018434
H        2.0900849817   -0.5917439625   -0.8016549337
H        1.3010922048    0.2194931256    0.5777342686
H        0.8485954882   -3.9484117380    1.8368431357
H       -1.3214207675   -5.0519629517    1.3856037518
H       -2.9297162264   -4.0247302943   -0.1707959685
H       -2.2259443867   -1.7799317424   -2.5842193734
H       -3.6044135383   -2.1845504415   -1.5444073574
H       -3.2732449444   -0.8533875383    0.6411358660
H       -2.5719267325    0.7626815409    0.5156638885
H       -5.0436572442    0.8165876397    0.9916081999
H       -5.3276289734   -0.0120338627   -0.5352373251
H       -5.5903352312    2.2927895394   -1.0956570718
H       -4.2419727595    2.7869319861   -0.0766767190
H       -2.6520618999    2.3287706163   -1.6726204866
H       -3.9994026640    2.4820185541   -2.8001646994
H       -4.3790199991    0.0055096317   -2.6245775316
H       -2.7740329178    0.4130375434   -3.2518322128
H       -0.2583888625   -0.7951294987   -0.8429651020
47   
Iteration 8 Energy -63.66439230
C        6.6434298889    3.0418990361    1.9240147974
C        5.2869492249    2.7910414095    1.2976086290
O        4.4167326381    3.6310502459    1.2262421076
N        5.1286996859    1.5414688768    0.8040732732
C        3.9092581030    1.1114657708    0.1607751436
C        3.4281634003   -0.2221676764    0.7244379339
C        2.1050524100   -0.6492990448    0.0994539696
O        1.7590375466   -1.9030975512    0.6501555853
C        0.4996563682   -2.3830614548    0.4307988610
C        0.1702171384   -3.5675969028    1.0926667456
C       -1.0787710520   -4.1247565864    0.9230173681
C       -2.0231878386   -3.5248179070    0.1034952833
C       -1.6978221162   -2.3527896799   -0.5564953684
C       -2.6904011387   -1.6852079060   -1.4696716788
N       -2.6844209738   -0.2473682377   -1.2929306405
C       -3.0799098187    0.1839153937    0.0455971075
C       -4.4872293382    0.7768117022    0.0735942214
C       -4.5098692998    2.0578369495   -0.7626795569
C       -3.6017437317    1.8981278763   -1.9934198361
C       -3.4216981766    0.4277941272   -2.3447253184
C       -0.4367865553   -1.7865323895   -0.4001451018
H        7.2573577353    3.5899869920    1.2136494981
H        6.5172179375    3.6643237074    2.8046896238
H        7.1507697693    2.1201563632    2.1972008662
H        5.8654109261    0.8617213189    0.8967461547
H        3.1779019941    1.9006096163    0.3445227364
H        4.0584286532    1.0233018528   -0.9250206951
H        3.2992338123   -0.1449074284    1.8049557206
H        4.1692186851   -1.0012705073    0.5316465623
H        2.2105920511   -0.7383422228   -0.9917318421
H        1.3305757554    0.0976730715    0.3148967580
H        0.9083271906   -4.0229560954    1.7322714970
H       -1.3284185121   -5.0365885078    1.4437721872
H       -2.9996698793   -3.9695067199   -0.0211211864
H       -2.3997975279   -1.8824094217   -2.5093350335
H       -3.6941426288   -2.1311373798   -1.3216433566
H       -3.0075796586   -0.6665646063    0.7265726250
H       -2.3666315039    0.9451386674    0.3924471555
H       -4.7961294116    0.9781826524    1.0990286126
H       -5.1856359372    0.0447984821   -0.3389990922
H       -5.5338675714    2.2865953114   -1.0626626328
H       -4.1527959838    2.8935353217   -0.1586592722
H       -2.6166512084    2.3181309945   -1.7871230986
H       -4.0151830380    2.4310897193   -2.8501739831
H       -4.4144746792   -0.0286102110   -2.5262674595
H       -2.8429505936    0.3262709640   -3.2684529240
H       -0.2264627408   -0.8739379805   -0.9321267083
47   
Iteration 9 Energy -63.66467213
C        6.6559176938    2.9851289514    1.9812911915
C        5.2832317237    2.7604009868    1.3805685521
O        4.3970618239    3.5856349246    1.4140063042
N        5.1331340727    1.5588050791    0.7763839382
C        3.9010629944    1.1443405463    0.1480229719
C        3.4386959216   -0.2115861521    0.6742297667
C        2.1056176452   -0.6245875746    0.0607867826
O        1.7735509826   -1.8942537217    0.5817240180
C        0.5085361084   -2.3716195142    0.3906240709
C        0.2013093119   -3.5512724924    1.0712240188
C       -1.0480173424   -4.1192628738    0.9488342925
C       -2.0056970355   -3.5171395356    0.1470181305
C       -1.7087522654   -2.3526856878   -0.5414682473
C       -2.7200794682   -1.6929151510   -1.4402191440
N       -2.6897609549   -0.2507578181   -1.3034412141
C       -3.0463811759    0.2196821594    0.0326025093
C       -4.4620327332    0.7901934204    0.0895326775
C       -4.5317874898    2.0472406468   -0.7807070388
C       -3.6415653135    1.8779812821   -2.0221144952
C       -3.4520227996    0.4039045219   -2.3522067893
C       -0.4458335088   -1.7835932601   -0.4263198325
H        7.2387585244    3.5957201815    1.2953438693
H        6.5498060753    3.5378899606    2.9101231986
H        7.1835205796    2.0534490007    2.1661320570
H        5.8842485022    0.8886532552    0.7947991043
H        3.1691376993    1.9215878473    0.3786578829
H        4.0269552336    1.0970653578   -0.9421249217
H        3.3288829348   -0.1715830878    1.7589120235
H        4.1811438309   -0.9780735943    0.4402476884
H        2.1918515284   -0.6823345572   -1.0343497327
H        1.3336457805    0.1131024340    0.3118350139
H        0.9600207819   -3.9964517945    1.6937711585
H       -1.2820552495   -5.0277587066    1.4836071745
H       -2.9855222448   -3.9612846743    0.0546696588
H       -2.4661401504   -1.9214664477   -2.4828088664
H       -3.7243809360   -2.1184459269   -1.2478490830
H       -2.9338263686   -0.6063345676    0.7379783061
H       -2.3348509767    1.0031821433    0.3259640063
H       -4.7403798575    1.0160463555    1.1188747207
H       -5.1603184206    0.0354044937   -0.2796914968
H       -5.5661502492    2.2399597264   -1.0702548850
H       -4.1866685011    2.9083641844   -0.2061921700
H       -2.6581480729    2.3124967149   -1.8391966999
H       -4.0762592559    2.3913406563   -2.8804499552
H       -4.4426317886   -0.0651440788   -2.5068249360
H       -2.8896845556    0.2929058735   -3.2855970670
H       -0.2471430346   -0.8819294817   -0.9810022740
47   
Iteration 10 Energy -63.66490777
C        6.6777345095    2.9634759725    1.9549168321
C        5.2854455171    2.7466211576    1.3998909708
O        4.3987529762    3.5638077675    1.5168263662
N        5.1218448390    1.5767725201    0.7350065523
C        3.8695479679    1.1637660083    0.1466946298
C        3.4293297082   -0.2011657811    0.6705986098
C        2.0796917611   -0.6125001011    0.0916708897
O        1.7659510254   -1.8878616050    0.6095811068
C        0.5082582436   -2.3814706203    0.4166991006
C        0.2051153015   -3.5664477337    1.0887512403
C       -1.0458543511   -4.1290552648    0.9501100647
C       -2.0068066398   -3.5282119684    0.1510607353
C       -1.7109700095   -2.3596291141   -0.5327128103
C       -2.7083171470   -1.6840183676   -1.4361509910
N       -2.6645702108   -0.2408903278   -1.2982047945
C       -3.0410838538    0.2278632686    0.0333284880
C       -4.4650174010    0.7789445654    0.0795872740
C       -4.5524326667    2.0298969349   -0.7987590671
C       -3.6343975599    1.8864000925   -2.0213920967
C       -3.4110393557    0.4182838289   -2.3586273753
C       -0.4478623253   -1.7963961158   -0.4006012733
H        7.2291398334    3.6044145602    1.2691409568
H        6.6030865552    3.4813445079    2.9073937344
H        7.2173797762    2.0299641239    2.0836513726
H        5.8849256499    0.9212390123    0.6854061732
H        3.1389463063    1.9326045735    0.4120836353
H        3.9636536667    1.1333989080   -0.9455054158
H        3.3502463284   -0.1726140320    1.7585513336
H        4.1692311619   -0.9602965918    0.4062877659
H        2.1360350041   -0.6552201571   -1.0059321089
H        1.3115506210    0.1176305277    0.3744242625
H        0.9612921068   -4.0171352270    1.7120895486
H       -1.2791292998   -5.0440541807    1.4741857594
H       -2.9863497538   -3.9736604528    0.0569130810
H       -2.4504895750   -1.9161774117   -2.4766532100
H       -3.7182162733   -2.0943278520   -1.2495936124
H       -2.9221758958   -0.5942024686    0.7426915061
H       -2.3421651232    1.0203707426    0.3265241838
H       -4.7469887910    1.0102799737    1.1074590334
H       -5.1518118021    0.0113811211   -0.2845521102
H       -5.5858550483    2.1872178925   -1.1129251534
H       -4.2472180355    2.9042117677   -0.2213281628
H       -2.6638338018    2.3406407374   -1.8177872815
H       -4.0655159655    2.3955526322   -2.8843886731
H       -4.3880662704   -0.0653967598   -2.5389893540
H       -2.8263005514    0.3273418907   -3.2812111525
H       -0.2446911520   -0.8926929495   -0.9512643252
47   
Iteration 11 Energy -63.66517576
C        6.7272053644    2.9185239350    1.9572124798
C        5.3254291233    2.7074953069    1.4253035939
O        4.4263496262    3.4996349982    1.6041727661
N        5.1665475400    1.5716662637    0.7012614305
C        3.8970540868    1.1713791421    0.1419464675
C        3.4512425680   -0.1890882489    0.6753018874
C        2.0877788604   -0.5864063608    0.1182389631
O        1.7666779844   -1.8564594550    0.6448679822
C        0.5132050917   -2.3534435394    0.4360182026
C        0.2052453731   -3.5439871852    1.0952267333
C       -1.0406891331   -4.1156578119    0.9445588104
C       -1.9943603686   -3.5089303655    0.1427066940
C       -1.6955978987   -2.3338341513   -0.5293540240
C       -2.6997379815   -1.6667098765   -1.4305370535
N       -2.6634695844   -0.2214700941   -1.2995882520
C       -3.0558572730    0.2485268810    0.0272924291
C       -4.4994776347    0.7467605263    0.0731713325
C       -4.6417248216    1.9815463200   -0.8219898255
C       -3.6983329075    1.8801878180   -2.0286488321
C       -3.4132529254    0.4233808616   -2.3688780709
C       -0.4373026884   -1.7627884203   -0.3843934795
H        7.2596790076    3.5851074413    1.2802973113
H        6.6681547274    3.4054878777    2.9270526704
H        7.2755453293    1.9854752615    2.0445787016
H        5.9376813159    0.9316199673    0.5981666448
H        3.1787994917    1.9465469750    0.4232271830
H        3.9713011776    1.1412629172   -0.9507999930
H        3.3896637995   -0.1564788042    1.7642742829
H        4.1791743970   -0.9559218347    0.4008307930
H        2.1289066890   -0.6283973175   -0.9798591025